atoms position and bonds
34 atoms
33 bonds
1 atom types
1 bond types
0 170 xlo xhi
-0.5 0.5 ylo yhi
-0.5 0.5 zlo zhi

Atoms

1 1 1 0.0 0.0 0.0
2 1 1 5.095056043304183.0 0.0 0.0
3 1 1 10.18925124436041.0 0.0 0.0
4 1 1 15.28173255684143.0 0.0 0.0
5 1 1 20.371662455660328.0 0.0 0.0
6 1 1 25.45822652172741.0 0.0 0.0
7 1 1 30.540640817455596.0 0.0 0.0
8 1 1 35.61815898622061.0 0.0 0.0
9 1 1 40.69007901148211.0 0.0 0.0
10 1 1 45.75574957435426.0 0.0 0.0
11 1 1 50.81457595205033.0 0.0 0.0
12 1 1 55.86602540378444.0 0.0 0.0
13 1 1 60.909631995354516.0 0.0 0.0
14 1 1 65.94500081871468.0 0.0 0.0
15 1 1 70.97181156832355.0 0.0 0.0
16 1 1 75.98982144188093.0 0.0 0.0
17 1 1 80.99886733918301.0 0.0 0.0
18 1 1 85.99886733918301.0 0.0 0.0
19 1 1 90.98982144188093.0 0.0 0.0
20 1 1 95.97181156832355.0 0.0 0.0
21 1 1 100.94500081871468.0 0.0 0.0
22 1 1 105.90963199535452.0 0.0 0.0
23 1 1 110.86602540378443.0 0.0 0.0
24 1 1 115.81457595205033.0 0.0 0.0
25 1 1 120.75574957435425.0 0.0 0.0
26 1 1 125.69007901148211.0 0.0 0.0
27 1 1 130.6181589862206.0 0.0 0.0
28 1 1 135.5406408174556.0 0.0 0.0
29 1 1 140.4582265217274.0 0.0 0.0
30 1 1 145.37166245566033.0 0.0 0.0
31 1 1 150.28173255684143.0 0.0 0.0
32 1 1 155.1892512443604.0 0.0 0.0
33 1 1 160.09505604330417.0 0.0 0.0
34 1 1 165.0 0.0 0.0

Bonds

1 1 1 2
2 1 2 3
3 1 3 4
4 1 4 5
5 1 5 6
6 1 6 7
7 1 7 8
8 1 8 9
9 1 9 10
10 1 10 11
11 1 11 12
12 1 12 13
13 1 13 14
14 1 14 15
15 1 15 16
16 1 16 17
17 1 17 18
18 1 18 19
19 1 19 20
20 1 20 21
21 1 21 22
22 1 22 23
23 1 23 24
24 1 24 25
25 1 25 26
26 1 26 27
27 1 27 28
28 1 28 29
29 1 29 30
30 1 30 31
31 1 31 32
32 1 32 33
33 1 33 34
